
    -----------------------------------------------------------------------
          Psi4: An Open-Source Ab Initio Electronic Structure Package
                               Psi4 undefined 

                         Git: Rev {master} b771313 


    D. G. A. Smith, L. A. Burns, A. C. Simmonett, R. M. Parrish,
    M. C. Schieber, R. Galvelis, P. Kraus, H. Kruse, R. Di Remigio,
    A. Alenaizan, A. M. James, S. Lehtola, J. P. Misiewicz, M. Scheurer,
    R. A. Shaw, J. B. Schriber, Y. Xie, Z. L. Glick, D. A. Sirianni,
    J. S. O'Brien, J. M. Waldrop, A. Kumar, E. G. Hohenstein,
    B. P. Pritchard, B. R. Brooks, H. F. Schaefer III, A. Yu. Sokolov,
    K. Patkowski, A. E. DePrince III, U. Bozkaya, R. A. King,
    F. A. Evangelista, J. M. Turney, T. D. Crawford, C. D. Sherrill,
    J. Chem. Phys. 152(18) 184108 (2020). https://doi.org/10.1063/5.0006002

                            Additional Code Authors
    E. T. Seidl, C. L. Janssen, E. F. Valeev, M. L. Leininger,
    J. F. Gonthier, R. M. Richard, H. R. McAlexander, M. Saitow, X. Wang,
    P. Verma, M. H. Lechner, and A. Jiang

             Previous Authors, Complete List of Code Contributors,
                       and Citations for Specific Modules
    https://github.com/psi4/psi4/blob/master/codemeta.json
    https://github.com/psi4/psi4/graphs/contributors
    http://psicode.org/psi4manual/master/introduction.html#citing-psifour

    -----------------------------------------------------------------------


    Psi4 started on: Saturday, 18 December 2021 05:21PM

    Process ID: 49736
    Host:       CHE-FEVANGE
    PSIDATADIR: /Users/fevange/Source/psi4/objdir-Debug/stage/share/psi4
    Memory:     500.0 MiB
    Threads:    1
    
  ==> Input File <==

--------------------------------------------------------------------------
import forte

molecule {
Li
H 1 1.6
symmetry c1
}

set {
  restricted_docc [1]
  active [2]
  mp2_type conv
  basis 6-31G
  scf_type pk
  e_convergence 13
  mcscf_e_convergence 11
  mcscf_maxiter 100
  mcscf_r_convergence 1.0e-6
  mcscf_diis_start 20          
}

ecasscf, cas = energy('casscf',return_wfn=True)

set forte {
  active_space_solver fci
  correlation_solver dsrg-mrpt2
  restricted_docc [1]
  active [2]
}

energy('forte',ref_wfn=cas)
--------------------------------------------------------------------------

Scratch directory: /tmp/

*** tstart() called on CHE-FEVANGE
*** at Sat Dec 18 17:21:59 2021

   => Loading Basis Set <=

    Name: 6-31G
    Role: ORBITAL
    Keyword: BASIS
    atoms 1 entry LI         line    42 file /Users/fevange/Source/psi4/objdir-Debug/stage/share/psi4/basis/6-31g.gbs 
    atoms 2 entry H          line    26 file /Users/fevange/Source/psi4/objdir-Debug/stage/share/psi4/basis/6-31g.gbs 


         ---------------------------------------------------------
                                   SCF
               by Justin Turney, Rob Parrish, Andy Simmonett
                          and Daniel G. A. Smith
                              RHF Reference
                        1 Threads,    500 MiB Core
         ---------------------------------------------------------

  ==> Geometry <==

    Molecular point group: c1
    Full point group: C_inf_v

    Geometry (in Angstrom), charge = 0, multiplicity = 1:

       Center              X                  Y                   Z               Mass       
    ------------   -----------------  -----------------  -----------------  -----------------
         LI           0.000000000000     0.000000000000    -0.200966416198     7.016003436600
         H            0.000000000000     0.000000000000     1.399033583802     1.007825032230

  Running in c1 symmetry.

  Rotational constants: A = ************  B =      7.47245  C =      7.47245 [cm^-1]
  Rotational constants: A = ************  B = 224018.52620  C = 224018.52620 [MHz]
  Nuclear repulsion =    0.992207270006250

  Charge       = 0
  Multiplicity = 1
  Electrons    = 4
  Nalpha       = 2
  Nbeta        = 2

  ==> Algorithm <==

  SCF Algorithm Type is PK.
  DIIS enabled.
  MOM disabled.
  Fractional occupation disabled.
  Guess Type is SAD.
  Energy threshold   = 1.00e-13
  Density threshold  = 1.00e-08
  Integral threshold = 1.00e-12

  ==> Primary Basis <==

  Basis Set: 6-31G
    Blend: 6-31G
    Number of shells: 7
    Number of basis functions: 11
    Number of Cartesian functions: 11
    Spherical Harmonics?: false
    Max angular momentum: 1

  ==> Integral Setup <==

  Using in-core PK algorithm.
   Calculation information:
      Number of atoms:                   2
      Number of AO shells:               7
      Number of primitives:             18
      Number of atomic orbitals:        11
      Number of basis functions:        11

      Integral cutoff                 1.00e-12
      Number of threads:                 1

  Performing in-core PK
  Using 4422 doubles for integral storage.
  We computed 406 shell quartets total.
  Whereas there are 406 unique shell quartets.

  ==> DiskJK: Disk-Based J/K Matrices <==

    J tasked:                  Yes
    K tasked:                  Yes
    wK tasked:                  No
    Memory [MiB]:              375
    Schwarz Cutoff:          1E-12

    OpenMP threads:              1

  Minimum eigenvalue in the overlap matrix is 8.1982793648E-02.
  Reciprocal condition number of the overlap matrix is 2.7697453497E-02.
    Using symmetric orthogonalization.

  ==> Pre-Iterations <==

  SCF Guess: Superposition of Atomic Densities via on-the-fly atomic UHF (no occupation information).

   -------------------------
    Irrep   Nso     Nmo    
   -------------------------
     A         11      11 
   -------------------------
    Total      11      11
   -------------------------

  ==> Iterations <==

                        Total Energy        Delta E     RMS |[F,P]|

   @RHF iter SAD:    -7.69022544267722   -7.69023e+00   0.00000e+00 
   @RHF iter   1:    -7.96382455077057   -2.73599e-01   9.01289e-03 DIIS
   @RHF iter   2:    -7.97852531986175   -1.47008e-02   1.42317e-03 DIIS
   @RHF iter   3:    -7.97923325163076   -7.07932e-04   4.18832e-04 DIIS
   @RHF iter   4:    -7.97931465476709   -8.14031e-05   1.00613e-04 DIIS
   @RHF iter   5:    -7.97932155402550   -6.89926e-06   5.84373e-06 DIIS
   @RHF iter   6:    -7.97932156479024   -1.07647e-08   8.50775e-07 DIIS
   @RHF iter   7:    -7.97932156502399   -2.33753e-10   9.35385e-08 DIIS
   @RHF iter   8:    -7.97932156502763   -3.64331e-12   7.42389e-09 DIIS
   @RHF iter   9:    -7.97932156502765   -1.95399e-14   1.37359e-09 DIIS
  Energy and wave function converged.


  ==> Post-Iterations <==

    Orbital Energies [Eh]
    ---------------------

    Doubly Occupied:                                                      

       1A     -2.453655     2A     -0.300437  

    Virtual:                                                              

       3A      0.009266     4A      0.060157     5A      0.060157  
       6A      0.144957     7A      0.200479     8A      0.221801  
       9A      0.221801    10A      0.358789    11A      1.317805  

    Final Occupation by Irrep:
              A 
    DOCC [     2 ]

  @RHF Final Energy:    -7.97932156502765

   => Energetics <=

    Nuclear Repulsion Energy =              0.9922072700062500
    One-Electron Energy =                 -12.4348732308874634
    Two-Electron Energy =                   3.4633443958535595
    Total Energy =                         -7.9793215650276537

Computation Completed


Properties will be evaluated at   0.000000,   0.000000,   0.000000 [a0]

Properties computed using the SCF density matrix

  Nuclear Dipole Moment: [e a0]
     X:     0.0000      Y:     0.0000      Z:     1.5045

  Electronic Dipole Moment: [e a0]
     X:     0.0000      Y:     0.0000      Z:    -3.8408

  Dipole Moment: [e a0]
     X:     0.0000      Y:     0.0000      Z:    -2.3363     Total:     2.3363

  Dipole Moment: [D]
     X:     0.0000      Y:     0.0000      Z:    -5.9383     Total:     5.9383


*** tstop() called on CHE-FEVANGE at Sat Dec 18 17:22:00 2021
Module time:
	user time   =       0.34 seconds =       0.01 minutes
	system time =       0.01 seconds =       0.00 minutes
	total time  =          1 seconds =       0.02 minutes
Total time:
	user time   =       0.34 seconds =       0.01 minutes
	system time =       0.01 seconds =       0.00 minutes
	total time  =          1 seconds =       0.02 minutes
 MINTS: Wrapper to libmints.
   by Justin Turney

   Calculation information:
      Number of threads:                 1
      Number of atoms:                   2
      Number of AO shells:               7
      Number of SO shells:               7
      Number of primitives:             18
      Number of atomic orbitals:        11
      Number of basis functions:        11

      Number of irreps:                  1
      Integral cutoff                 1.00e-12
      Number of functions per irrep: [  11 ]

 OEINTS: Overlap, kinetic, potential, dipole, and quadrupole integrals
         stored in file 35.

      Computing two-electron integrals...done
      Computed 677 non-zero two-electron integrals.
        Stored in file 33.

 MINTS: Wrapper to libmints.
   by Justin Turney

   Calculation information:
      Number of threads:                 1
      Number of atoms:                   2
      Number of AO shells:               7
      Number of SO shells:               7
      Number of primitives:             18
      Number of atomic orbitals:        11
      Number of basis functions:        11

      Number of irreps:                  1
      Integral cutoff                 1.00e-12
      Number of functions per irrep: [  11 ]

 OEINTS: Overlap, kinetic, potential, dipole, and quadrupole integrals
         stored in file 35.

      Computing two-electron integrals...done
      Computed 677 non-zero two-electron integrals.
        Stored in file 33.


         ---------------------------------------------------------
                Multi-Configurational Self-Consistent Field
                            (a 'D E T C I' module)

                 Daniel G. A. Smith, C. David Sherrill, and
                              Matt L. Leininger
         ---------------------------------------------------------


   ==> Parameters <==

    EX LEVEL       =        2      H0 BLOCKSIZE  =     1000
    VAL EX LEVEL   =        0      H0 GUESS SIZE =     1000
    H0COUPLINGSIZE =        0      H0 COUPLING   =       NO
    MAXITER        =       12      NUM PRINT     =       20
    NUM ROOTS      =        1      ICORE         =        1
    PRINT LVL      =        1      FCI           =      YES
    R CONV         = 1.00e-07      MIXED         =      YES
    E CONV         = 1.00e-13      MIXED4        =      YES
    R4S            =       NO      REPL OTF      =       NO
    DIAG METHOD    =      SEM      FOLLOW ROOT   =        0
    PRECONDITIONER = DAVIDSON      UPDATE        = DAVIDSON
    S              =   0.0000      Ms0           =      YES
    GUESS VECTOR   =  H0BLOCK      OPENTYPE      =     NONE
    COLLAPSE SIZE  =        1      HD AVG        = EVANGELISTI
    MAX NUM VECS   =       13      REF SYM       =     AUTO
    IOPEN        =       NO

    EX ALLOW       =  1  1 
    STATE AVERAGE  =  0(1.00) 

   ==> CI Orbital and Space information <==

   ------------------------------------
               Space    Total     A
   ------------------------------------
                 Nso       11    11
                 Nmo       11    11
               Ndocc        2     2
               Nsocc        0     0
   ------------------------------------
               MCSCF Spaces
   ------------------------------------
         Frozen DOCC        0     0
     Restricted DOCC        1     1
              Active        2     2
     Restricted UOCC        8     8
         Frozen UOCC        0     0
   ------------------------------------

   ==> Setting up CI strings <==

    There are 2 alpha and 2 beta strings
    The CI space requires 4 (4.00E+00) determinants and 1 blocks

   ==> Setting up MCSCF integrals <==

  Using in-core PK algorithm.
   Calculation information:
      Number of atoms:                   2
      Number of AO shells:               7
      Number of primitives:             18
      Number of atomic orbitals:        11
      Number of basis functions:        11

      Integral cutoff                 1.00e-12
      Number of threads:                 1

  Performing in-core PK
  Using 4422 doubles for integral storage.
  We computed 406 shell quartets total.
  Whereas there are 406 unique shell quartets.

  ==> DiskJK: Disk-Based J/K Matrices <==

    J tasked:                  Yes
    K tasked:                  Yes
    wK tasked:                  No
    Memory [MiB]:              400
    Schwarz Cutoff:          1E-12

    OpenMP threads:              1


   ==> Starting MCSCF iterations <==

        Iter         Total Energy       Delta E   Orb RMS    CI RMS  NCI NORB
   @MCSCF  1:     -7.979464760271   -1.4320e-04  4.14e-04  2.79e-14    1    1  Initial CI
      Warning! Maxstep = 1.14, scaling to 0.50
   @MCSCF  2:     -7.989037812467   -9.5731e-03  1.44e-02  2.34e-15    3    1  TS
   @MCSCF  3:     -7.994512766631   -5.4750e-03  8.92e-03  1.53e-15    2    1  TS
   @MCSCF  4:     -7.995567783067   -1.0550e-03  4.23e-03  2.38e-15    2    1  TS
   @MCSCF  5:     -7.995826924260   -2.5914e-04  2.05e-03  2.51e-15    2    1  TS
   @MCSCF  6:     -7.995893286761   -6.6363e-05  1.01e-03  1.95e-15    2    1  TS
   @MCSCF  7:     -7.995910537226   -1.7250e-05  5.09e-04  2.06e-15    2    1  TS
   @MCSCF  8:     -7.995915053576   -4.5163e-06  2.57e-04  1.61e-15    2    1  TS
   @MCSCF  9:     -7.995916240488   -1.1869e-06  1.29e-04  3.58e-16    2    1  TS
   @MCSCF 10:     -7.995916553126   -3.1264e-07  6.50e-05  3.40e-17    2    1  TS
   @MCSCF 11:     -7.995916635633   -8.2507e-08  3.23e-05  9.40e-16    2    1  TS
   @MCSCF 12:     -7.995916657463   -2.1831e-08  1.58e-05  1.56e-15    2    1  TS
   @MCSCF 13:     -7.995916663268   -5.8052e-09  7.52e-06  3.43e-16    2    1  TS
   @MCSCF 14:     -7.995916664829   -1.5605e-09  3.44e-06  7.80e-17    2    1  TS
   @MCSCF 15:     -7.995916665258   -4.2950e-10  1.49e-06  7.18e-16    2    1  TS
   @MCSCF 16:     -7.995916665383   -1.2415e-10  6.71e-07  8.21e-16    2    1  TS
   @MCSCF 17:     -7.995916665422   -3.9352e-11  4.43e-07  4.13e-16    2    1  TS
   @MCSCF 18:     -7.995916665436   -1.4383e-11  4.04e-07  1.14e-15    2    1  TS
   @MCSCF 19:     -7.995916665443   -6.2279e-12  3.69e-07  3.91e-16    2    1  TS

          @MCSCF has converged!

   @MCSCF Final Energy:   -7.995916665442578

   Computing CI Semicanonical Orbitals

   ==> Starting CI iterations <==

    H0 Block Eigenvalue =  -7.99591667

    Simultaneous Expansion Method (Block Davidson Method)
    Using 1 initial trial vectors

     Iter   Root       Total Energy       Delta E      C RMS

   @CI  0:     0     -7.995916665443   -1.0916E+00   9.8150E-16  
    Warning: Norm of correction (root 0) is < 1.0E-13
   @CI  1:     0     -7.995916665443   0.0000E+00   2.5127E-15 c

   ==> Energetics <==

    SCF energy =           -7.979321565027654
    Total MCSCF energy =   -7.995916665442578

   ==> MCSCF root 0 information <==

    MCSCF Root 0 energy =    -7.995916665442576

   Active Space Natural occupation numbers:

         A   1.959400         A   0.040600

   The 4 most important determinants:

    *   1   -0.989797  (    0,    0)  2AX 
    *   2    0.142477  (    1,    1)  3AX 
    *   3    0.001175  (    0,    1)  2AA 3AB 
    *   4    0.001175  (    1,    0)  2AB 3AA 



Properties will be evaluated at   0.000000,   0.000000,   0.000000 [a0]

Properties computed using the CASSCF density matrix

  Nuclear Dipole Moment: [e a0]
     X:     0.0000      Y:     0.0000      Z:     1.5045

  Electronic Dipole Moment: [e a0]
     X:     0.0000      Y:    -0.0000      Z:    -3.6892

  Dipole Moment: [e a0]
     X:     0.0000      Y:    -0.0000      Z:    -2.1847     Total:     2.1847

  Dipole Moment: [D]
     X:     0.0000      Y:    -0.0000      Z:    -5.5529     Total:     5.5529


Scratch directory: /tmp/

  Forte
  ----------------------------------------------------------------------------
  A suite of quantum chemistry methods for strongly correlated electrons

    git branch: make_so_ints - git commit: 8aa9a2e8

  Developed by:
    Francesco A. Evangelista, Chenyang Li, Kevin P. Hannon,
    Jeffrey B. Schriber, Tianyuan Zhang, Chenxi Cai,
    Nan He, Nicholas Stair, Shuhe Wang, Renke Huang
  ----------------------------------------------------------------------------

  Size of Determinant class: 128 bits

  Preparing forte objects from a Psi4 Wavefunction object
  Read options for space RESTRICTED_DOCC
  Read options for space ACTIVE
  Read options for space RESTRICTED_DOCC

  ==> MO Space Information <==

  -------------------------------
                        A   Sum
  -------------------------------
    FROZEN_DOCC         0     0
    RESTRICTED_DOCC     1     1
    GAS1                2     2
    GAS2                0     0
    GAS3                0     0
    GAS4                0     0
    GAS5                0     0
    GAS6                0     0
    RESTRICTED_UOCC     8     8
    FROZEN_UOCC         0     0
    Total              11    11
  -------------------------------   => Loading Basis Set <=

    Name: 6-31G
    Role: ORBITAL
    Keyword: BASIS
    atoms 1 entry LI         line    42 file /Users/fevange/Source/psi4/objdir-Debug/stage/share/psi4/basis/6-31g.gbs 
    atoms 2 entry H          line    26 file /Users/fevange/Source/psi4/objdir-Debug/stage/share/psi4/basis/6-31g.gbs 


  Checking orbital orthonormality against current geometry ... Done (OK)

   => Loading Basis Set <=

    Name: STO-3G
    Role: ORBITAL
    Keyword: MINAO_BASIS
    atoms 1 entry LI         line    31 file /Users/fevange/Source/psi4/objdir-Debug/stage/share/psi4/basis/sto-3g.gbs 
    atoms 2 entry H          line    19 file /Users/fevange/Source/psi4/objdir-Debug/stage/share/psi4/basis/sto-3g.gbs 


  ==> List of Planes Requested <==

  Forte will use psi4 integrals

  ==> Primary Basis Set Summary <==

  Basis Set: 6-31G
    Blend: 6-31G
    Number of shells: 7
    Number of basis functions: 11
    Number of Cartesian functions: 11
    Spherical Harmonics?: false
    Max angular momentum: 1


  JK created using conventional PK integrals
  Using in-core PK algorithm.
   Calculation information:
      Number of atoms:                   2
      Number of AO shells:               7
      Number of primitives:             18
      Number of atomic orbitals:        11
      Number of basis functions:        11

      Integral cutoff                 1.00e-12
      Number of threads:                 1

  Performing in-core PK
  Using 4422 doubles for integral storage.
  We computed 406 shell quartets total.
  Whereas there are 406 unique shell quartets.

  ==> DiskJK: Disk-Based J/K Matrices <==

    J tasked:                  Yes
    K tasked:                  Yes
    wK tasked:                  No
    Memory [MiB]:              400
    Schwarz Cutoff:          1E-12

    OpenMP threads:              1



  ==> Integral Transformation <==

  Number of molecular orbitals:                         11
  Number of correlated molecular orbitals:              11
  Number of frozen occupied orbitals:                    0
  Number of frozen unoccupied orbitals:                  0
  Two-electron integral type:                 Conventional


  Computing Conventional Integrals	Presorting SO-basis two-electron integrals.
	Sorting File: SO Ints (nn|nn) nbuckets = 1
	Constructing frozen core operators
	Starting first half-transformation.
	Sorting half-transformed integrals.
	First half integral transformation complete.
	Starting second half-transformation.
	Two-electron integral transformation complete.

  Integral transformation done. 0.00822504 s
  Reading the two-electron integrals from disk
  Size of two-electron integrals:   0.000327 GB
  Timing for conventional integral transformation:            0.029 s.
  Timing for freezing core and virtual orbitals:              0.000 s.
  Timing for computing conventional integrals:                0.029 s.

  ==> Summary of Active Space Solver Input <==

    Irrep.  Multi.(2ms)      N
    --------------------------
        A      1  (  0)      1
    --------------------------
    N: number of roots
    ms: spin z component
    Total number of roots:   1
    --------------------------


  ==> String Lists <==

  Number of alpha electrons     = 1
  Number of beta electrons      = 1
  Number of alpha strings       = 2
  Number of beta strings        = 2
  Timing for strings        =      0.000 s
  Timing for NN strings     =      0.000 s
  Timing for VO strings     =      0.000 s
  Timing for OO strings     =      0.000 s
  Timing for VVOO strings   =      0.000 s
  Timing for VOVO strings   =      0.000 s
  Timing for 1-hole strings =      0.000 s
  Timing for 2-hole strings =      0.000 s
  Timing for 3-hole strings =      0.000 s
  Total timing              =      0.000 s

  ==> FCI Solver <==

    Number of determinants                           4
    Symmetry                                         0
    Multiplicity                                     1
    Number of roots                                  1
    Target root                                      0
    Trial vectors per root                          10

  Allocating memory for the Hamiltonian algorithm. Size: 2 x 2 x 2.   Memory: 0.000000 GB

  ==> FCI Initial Guess <==

  ---------------------------------------------
    Root            Energy     <S^2>   Spin
  ---------------------------------------------
      0       -7.995916665443  0.000  singlet
      1       -7.706045986623  2.000  triplet
      2       -7.463601499288  0.000  singlet
      3       -7.135789514026  0.000  singlet
  ---------------------------------------------
  Timing for initial guess  =      0.000 s

  Projecting out root 1

  ==> Diagonalizing Hamiltonian <==

  Energy   convergence: 1.00e-13
  Residual convergence: 1.00e-06
  -----------------------------------------------------
    Iter.      Avg. Energy       Delta_E     Res. Norm
  -----------------------------------------------------
      1       -7.995916665443  -7.996e+00  +6.968e-15
      2       -7.995916665443  +0.000e+00  +6.968e-15
  -----------------------------------------------------
  The Davidson-Liu algorithm converged in 3 iterations.

  ==> Root No. 0 <==

    20     -0.98979665
    02      0.14247748

    Total Energy:      -7.995916665443, <S^2>: 0.000000

  ==> Energy Summary <==

    Multi.(2ms)  Irrep.  No.               Energy      <S^2>
    --------------------------------------------------------
       1  (  0)     A     0       -7.995916665443   0.000000
    --------------------------------------------------------

  ==> Computing RDMs for Root No. 0 <==

    Timing for 1-RDM: 0.000 s
    Timing for 2-RDM: 0.000 s
    Timing for 3-RDM: 0.000 s

  ==> NATURAL ORBITALS <==

        1A      1.959400      2A      0.040600  


       -----------------------------------------------------------------
                            Semi-Canonical Orbitals
         Chenyang Li, Jeffrey B. Schriber and Francesco A. Evangelista
       -----------------------------------------------------------------

  Took 0.000473 s to build Fock matrix

  ==> Checking Fock Matrix Diagonal Blocks <==
  ## Fock (Symmetry 0) ##
  Irrep: 1 Size: 11 x 11

                 1                   2                   3                   4                   5

    1    -2.45327575075263    -0.00365432763513    -0.00051566288503    -0.00000000685305     0.00000000000000
    2    -0.00365432763513    -0.29858792599734     0.00000000000000     0.00270045024343    -0.00000000000000
    3    -0.00051566288503     0.00000000000000     0.38533233226852     0.08003895797163    -0.00000000000000
    4    -0.00000000685305     0.00270045024343     0.08003895797163     0.05093920404367    -0.00000000000000
    5     0.00000000000000    -0.00000000000000    -0.00000000000000    -0.00000000000000     0.05968670990680
    6     0.00000000000000    -0.00000000000000     0.00000000000000    -0.00000000000000    -0.00000000000000
    7    -0.00000001664336     0.00135700475657     0.00564342440214     0.00000000000000     0.00000000000000
    8    -0.00000000000000     0.00000000000000    -0.00000000000000     0.00000000000000    -0.00000000000000
    9     0.00000000000000    -0.00000000000000    -0.00000000000000    -0.00000000000000    -0.00000000000000
   10    -0.00000001880870     0.00171116647884     0.12751139620917     0.00000000000000     0.00000000000000
   11     0.00000000185053     0.01580110044102     0.41355685684413    -0.00000000000000    -0.00000000000000

                 6                   7                   8                   9                  10

    1     0.00000000000000    -0.00000001664336    -0.00000000000000     0.00000000000000    -0.00000001880870
    2    -0.00000000000000     0.00135700475657     0.00000000000000    -0.00000000000000     0.00171116647884
    3     0.00000000000000     0.00564342440214    -0.00000000000000    -0.00000000000000     0.12751139620917
    4    -0.00000000000000     0.00000000000000     0.00000000000000    -0.00000000000000     0.00000000000000
    5    -0.00000000000000     0.00000000000000    -0.00000000000000     0.00000000000000     0.00000000000000
    6     0.05968670990680    -0.00000000000000     0.00000000000000    -0.00000000000000     0.00000000000000
    7    -0.00000000000000     0.20122950789554    -0.00000000000000     0.00000000000000     0.00000000000000
    8     0.00000000000000    -0.00000000000000     0.22174177995205    -0.00000000000000    -0.00000000000000
    9     0.00000000000000     0.00000000000000    -0.00000000000000     0.22174177995205     0.00000000000000
   10     0.00000000000000     0.00000000000000    -0.00000000000000     0.00000000000000     0.26026133658704
   11    -0.00000000000000    -0.00000000000000     0.00000000000000    -0.00000000000000    -0.00000000000000

                11

    1     0.00000000185053
    2     0.01580110044102
    3     0.41355685684413
    4    -0.00000000000000
    5    -0.00000000000000
    6    -0.00000000000000
    7    -0.00000000000000
    8     0.00000000000000
    9    -0.00000000000000
   10    -0.00000000000000
   11     1.11387798632274




    Off-Diag. Elements       Max           2-Norm
    ------------------------------------------------
    FROZEN_DOCC          0.0000000000   0.0000000000
    FROZEN_UOCC          0.0000000000   0.0000000000
    GAS1                 0.0000000000   0.0000000000
    GAS2                 0.0000000000   0.0000000000
    GAS3                 0.0000000000   0.0000000000
    GAS4                 0.0000000000   0.0000000000
    GAS5                 0.0000000000   0.0000000000
    GAS6                 0.0000000000   0.0000000000
    RESTRICTED_DOCC      0.0000000000   0.0000000000
    RESTRICTED_UOCC      0.0000000000   0.0000000000
    ------------------------------------------------
  Orbitals are already semicanonicalized.

  ==> Multireference Driven Similarity Renormalization Group <==

    Computing Fock matrix and cleaning JK ........... Done
    Reading DSRG options ............................ Done
    Setting ambit MO space .......................... Done
    Preparing tensors for density cumulants ......... Done
    Filling Fock matrix from ForteIntegrals ......... Done

              ----------------------------------------------------
                    MR-DSRG Second-Order Perturbation Theory
                Chenyang Li, Kevin Hannon, Francesco Evangelista
              ----------------------------------------------------

    References:
      u-DSRG-MRPT2:    J. Chem. Theory Comput. 2015, 11, 2097.
      (pr-)DSRG-MRPT2: J. Chem. Phys. 2017, 146, 124132.

  ==> Calculation Information <==

    int_type                                    CONVENTIONAL
    source operator                                 STANDARD
    reference relaxation                                NONE
    state_type                                STATE-SPECIFIC
    form Hbar3                                         FALSE
    flow parameter                                 5.000e-01
    taylor expansion threshold                     1.000e-03
    intruder_tamp                                  1.000e-01
    ntamp                                                 15


  ==> Checking Semicanonical Orbitals <==

    Block             Fa Max         Fa Mean           Fb Max         Fb Mean
    -------------------------------------------------------------------------
    CORE        0.0000000000    0.0000000000     0.0000000000    0.0000000000
    VIRTUAL     0.0000000000    0.0000000000     0.0000000000    0.0000000000
    GAS1        0.0000000000    0.0000000000     0.0000000000    0.0000000000
    -------------------------------------------------------------------------
    Orbitals are semi-canonicalized.

  ==> Computing DSRG-MRPT2 ... <==

    Computing T2 amplitudes                  ...  Done. Timing        0.001033 s
    Computing T1 amplitudes                  ...  Done. Timing        0.001449 s
    Renormalizing two-electron integrals     ...  Done. Timing        0.000333 s
    Renormalizing Fock matrix elements       ...  Done. Timing        0.001529 s
    Computing <[F, T1]>                      ...  Done. Timing        0.000631 s
    Computing <[F, T2]>                      ...  Done. Timing        0.002420 s
    Computing <[V, T1]>                      ...  Done. Timing        0.002513 s
    Computing <[V, T2]> (C_2)^4              ...  Done. Timing        0.013882 s
    Computing <[V, T2]> C_4 (C_2)^2 HH       ...  Done. Timing        0.003419 s
    Computing <[V, T2]> C_4 (C_2)^2 PP       ...  Done. Timing        0.003490 s
    Computing <[V, T2]> C_4 (C_2)^2 PH       ...  Done. Timing        0.015617 s
    Computing <[V, T2]> C_6 C_2              ...  Done. Timing        0.009691 s

  ==> Excitation Amplitudes Summary <==

    Active Indices:    1    2 
    Largest T1 amplitudes for spin case A:
       i       a                  i       a                  i       a               
    --------------------------------------------------------------------------------
    [  2      10    ]-0.132329 [  2       3    ] 0.013016 [  2       9    ] 0.007944 
    [  1      10    ]-0.007071 [  0       1    ] 0.001529 [  2       6    ] 0.000515 
    [  1       3    ]-0.000458 [  1       9    ]-0.000443 [  1       6    ]-0.000319 
    [  0       2    ] 0.000178 [  0       9    ]-0.000000 [  0       6    ]-0.000000 
    [  0      10    ]-0.000000 [  0       3    ]-0.000000 
    --------------------------------------------------------------------------------
    Norm of T1A vector: (nonzero elements: 14)                    0.133403654027966.
    --------------------------------------------------------------------------------
    Largest T1 amplitudes for spin case B:
       _       _                  _       _                  _       _               
       i       a                  i       a                  i       a               
    --------------------------------------------------------------------------------
    [  2      10    ]-0.132329 [  2       3    ] 0.013016 [  2       9    ] 0.007944 
    [  1      10    ]-0.007071 [  0       1    ] 0.001529 [  2       6    ] 0.000515 
    [  1       3    ]-0.000458 [  1       9    ]-0.000443 [  1       6    ]-0.000319 
    [  0       2    ] 0.000178 [  0       9    ]-0.000000 [  0       6    ]-0.000000 
    [  0      10    ]-0.000000 [  0       3    ]-0.000000 
    --------------------------------------------------------------------------------
    Norm of T1B vector: (nonzero elements: 14)                    0.133403654027966.
    --------------------------------------------------------------------------------
    Largest T2 amplitudes for spin case AA:
       i   j   a   b              i   j   a   b              i   j   a   b           
    --------------------------------------------------------------------------------
    [  1   2   1  10]-0.028466 [  1   2   2  10]-0.018984 [  1   2   2   9]-0.007542 
    [  0   1   1   9]-0.004145 [  0   1   1   6]-0.003501 [  1   2   1   3] 0.003195 
    [  0   2   2   9]-0.002695 [  1   2   1   9] 0.002244 [  0   2   2   6]-0.002243 
    [  1   2   3  10]-0.001975 [  1   2   6  10]-0.001936 [  0   2   1   9]-0.001803 
    [  1   2   9  10] 0.001481 [  1   2   2   6] 0.001463 [  0   2   1   6]-0.001418 
    --------------------------------------------------------------------------------
    Norm of T2AA vector: (nonzero elements: 224)                  0.072626454492385.
    --------------------------------------------------------------------------------
    Largest T2 amplitudes for spin case AB:
           _       _                  _       _                  _       _           
       i   j   a   b              i   j   a   b              i   j   a   b           
    --------------------------------------------------------------------------------
    [  2   2  10  10]-0.051519 [  1   2   2  10]-0.048551 [  2   2   2  10]-0.045170 
    [  1   2   1  10]-0.043767 [  1   2  10  10]-0.023808 [  1   1   2  10]-0.020277 
    [  1   1  10  10]-0.019380 [  1   1   1  10]-0.016652 [  1   1   9   9]-0.008766 
    [  2   2   1   3] 0.007400 [  2   2   5   5] 0.006166 [  2   2   4   4] 0.006166 
    [  1   1   2   9]-0.005538 [  1   1   8   8]-0.005383 [  1   1   7   7]-0.005383 
    --------------------------------------------------------------------------------
    Norm of T2AB vector: (nonzero elements: 416)                  0.147655630919200.
    --------------------------------------------------------------------------------
    Largest T2 amplitudes for spin case BB:
       _   _   _   _              _   _   _   _              _   _   _   _           
       i   j   a   b              i   j   a   b              i   j   a   b           
    --------------------------------------------------------------------------------
    [  1   2   1  10]-0.028466 [  1   2   2  10]-0.018984 [  1   2   2   9]-0.007542 
    [  0   1   1   9]-0.004145 [  0   1   1   6]-0.003501 [  1   2   1   3] 0.003195 
    [  0   2   2   9]-0.002695 [  1   2   1   9] 0.002244 [  0   2   2   6]-0.002243 
    [  1   2   3  10]-0.001975 [  1   2   6  10]-0.001936 [  0   2   1   9]-0.001803 
    [  1   2   9  10] 0.001481 [  1   2   2   6] 0.001463 [  0   2   1   6]-0.001418 
    --------------------------------------------------------------------------------
    Norm of T2BB vector: (nonzero elements: 224)                  0.072626454492385.
    --------------------------------------------------------------------------------

  ==> Possible Intruders <==

    T1 amplitudes larger than 0.1000 for spin case A:
        Amplitude         Value                  Denominator              
    ----------------------------------------------------------------------
    [  2      10    ]   -0.13232861 (  0.385332 -   1.113878 =  -0.728546)
    ----------------------------------------------------------------------
    T1 amplitudes larger than 0.1000 for spin case B:
        Amplitude         Value                  Denominator              
    ----------------------------------------------------------------------
    [  2      10    ]   -0.13232861 (  0.385332 -   1.113878 =  -0.728546)
    ----------------------------------------------------------------------
    T2 amplitudes larger than 0.1000 for spin case AA: NULL
    T2 amplitudes larger than 0.1000 for spin case AB: NULL
    T2 amplitudes larger than 0.1000 for spin case BB: NULL

  ==> DSRG-MRPT2 Energy Summary <==

    E0 (reference)                 =     -7.995916665442580
    <[F, T1]>                      =     -0.004054866166895
    <[F, T2]>                      =      0.005429854776796
    <[V, T1]>                      =      0.003047425118837
    <[V, T2]> (C_2)^4              =     -0.005258080443085
    <[V, T2]> C_4 (C_2)^2 HH       =      0.000003585009360
    <[V, T2]> C_4 (C_2)^2 PP       =      0.003072824360727
    <[V, T2]> C_4 (C_2)^2 PH       =     -0.003707054687659
    <[V, T2]> C_6 C_2              =      0.000426424806109
    <[V, T2]>                      =     -0.005462300954549
    DSRG-MRPT2 correlation energy  =     -0.001039887225811
    DSRG-MRPT2 total energy        =     -7.996956552668391
    max(T1)                        =      0.132328605821987
    max(T2)                        =      0.051519012097388
    ||T1||                         =      0.188661256796477
    ||T2||                         =      0.312662669906174

  Energy took      0.058 s


  ==> Total Timings (s) for Computing Commutators <==

             [H1, T1]    [H1, T2]    [H2, T1]    [H2, T2]
    -----------------------------------------------------
    -> C0       0.001       0.002       0.003       0.046
    -> C1       0.000       0.000       0.000       0.000
    -> C2                   0.000       0.000       0.000
    -----------------------------------------------------


  Time to prepare integrals:        0.057 seconds
  Time to run job          :        0.065 seconds
  Total                    :        0.122 seconds

    Psi4 stopped on: Saturday, 18 December 2021 05:22PM
    Psi4 wall time for execution: 0:00:01.02

*** Psi4 exiting successfully. Buy a developer a beer!
